version 3
run General-0-20221130-16:55:16-21352
attr configname General
attr datetime 20221130-16:55:16
attr datetimef 20221130-165516
attr experiment General
attr inifile progetto.ini
attr iterationvars "$0=0.5, $1=0.5, $2=4, $3=4"
attr iterationvarsd 0.5/0.5/4/4
attr iterationvarsf 0.5,0.5,4,4-
attr measurement "$0=0.5, $1=0.5, $2=4, $3=4"
attr network Rete
attr processid 21352
attr repetition 0
attr replication #0
attr resultdir results
attr runnumber 0
attr seedset 0
config network Rete
config repeat 1
config sim-time-limit 1000s
config debug-on-errors true
config Rete.numServers 2
config **.ElasticSource.jobType 1
config **.ElasticSource.jobName "\"Elastic\""
config **.InelasticSource.jobType 2
config **.InelasticSource.jobName "\"Inelastic\""
config **.ElasticSource.interArrivalTime exponential(0.5s)
config **.InelasticSource.interArrivalTime exponential(0.5s)
config **.ElasticQueue.capacity (4)
config **.InelasticQueue.capacity (4)

vector 0 Rete.ElasticQueue queueLength:vector ETV
attr interpolationmode sample-hold
attr recordingmode vector
attr title "queue length"
vector 1 Rete.InelasticQueue queueLength:vector ETV
attr interpolationmode sample-hold
attr recordingmode vector
attr title "queue length"
vector 2 Rete.sink lifeTime:vector ETV
attr interpolationmode none
attr recordingmode vector
attr title "lifetime of arrived jobs"
attr unit s
0	0	0	0
1	0	0	0
2	7	0.397937252283	0
2	12	0.449280194242	0
2	19	1.025902631307	0
2	24	1.379082300279	0
2	31	1.487514197042	0
2	38	1.881114767033	0
2	43	2.354854968221	0
2	48	2.630379211556	0
2	55	2.820596794134	0
2	60	3.118882424753	0
2	67	3.339676444466	0
2	72	3.361446506614	0
2	77	3.538026076183	0
2	84	3.627436042907	0
2	91	3.656628377454	0
2	96	4.649788287201	0
2	101	4.808966357622	0
2	106	5.050767410096	0
2	113	5.314084517418	0
2	118	5.375490584221	0
2	125	6.09853257623	0
2	130	6.211596184383	0
2	137	6.474869632886	0
2	142	6.538537467994	0
2	147	6.787973472502	0
2	154	6.894586059336	0
2	161	7.798770691473	0
2	168	7.835613369206	0
2	175	8.041402367327	0
2	182	8.086982880389	0
2	187	8.087100515426	0
2	192	8.097313309626	0
2	197	8.326937378254	0
2	204	8.609289134543	0
2	209	9.220681209973	0
2	214	9.973573339292	0
2	219	10.049188766124	0
2	226	10.184374098881	0
2	231	11.069345895095	0
2	238	11.204820206837	0
2	245	11.525674793176	0
2	252	12.328294571707	0
2	257	12.991956829666	0
2	264	13.135295609153	0
2	269	13.301421559479	0
2	276	13.502777819748	0
2	281	14.059689546474	0
2	288	14.070747290603	0
2	293	14.122626751193	0
2	298	14.633342688368	0
2	305	14.708361141715	0
2	312	14.785725981965	0
2	317	15.069503285889	0
2	324	15.171143311199	0
2	331	15.881825651246	0
2	338	16.250739297124	0
2	345	16.30671237744	0
2	350	16.516713524883	0
2	357	16.574495237554	0
2	364	16.72813541363	0
2	371	16.831237054645	0
2	376	16.837560875899	0
2	381	17.505205968211	0
2	388	17.575364467521	0
2	395	17.697388712889	0
2	400	17.809747179803	0
2	405	17.882386193449	0
2	410	17.89187047805	0
2	415	18.087755883388	0
2	422	18.117556065695	0
2	429	18.198624310418	0
2	434	18.568446352921	0
2	441	18.672122649005	0
2	446	18.694167318958	0
2	451	18.938445843612	0
2	458	19.151896637689	0
2	465	20.316353324796	0
2	470	20.377403354251	0
2	475	20.67627639266	0
2	482	20.888922802146	0
2	487	20.899035640186	0
2	492	21.186301843557	0
2	499	21.363670093894	0
2	506	21.961723993623	0
2	513	22.014004606511	0
2	520	22.045062251744	0
2	525	22.349477374404	0
2	530	22.898933608179	0
2	535	23.428350673923	0
2	542	23.795169093971	0
2	549	23.88888212698	0
2	554	23.983649396767	0
2	561	24.006985480021	0
2	568	24.075999824235	0
2	573	24.205351411077	0
2	578	24.394832393218	0
2	585	24.770521169131	0
2	590	24.862863173104	0
2	597	24.996572199243	0
2	602	25.059419451756	0
2	607	25.079011029963	0
2	612	25.367673185366	0
2	619	25.418786096007	0
2	624	25.870608687949	0
2	629	27.467082008976	0
2	634	27.520899563054	0
2	641	27.646034519095	0
2	648	27.763185278483	0
2	653	28.04981276973	0
2	658	28.137769542443	0
2	665	28.267194901193	0
2	672	28.79656625874	0
2	679	29.232524185553	0
2	686	29.378564452187	0
2	693	29.646096790729	0
2	700	29.960067581225	0
2	707	30.281958082026	0
2	714	30.422096586265	0
2	719	30.817819717565	0
2	724	30.904383445638	0
2	731	30.9105286233	0
2	738	30.969006328196	0
2	743	31.110634060599	0
2	750	31.530590478963	0
2	755	31.644670159174	0
2	760	31.7190262938	0
2	767	31.72136840065	0
2	774	31.830808698904	0
2	779	32.472343960436	0
2	784	32.702350939306	0
2	789	33.245485629745	0
2	796	33.32440364483	0
2	803	33.331235934045	0
2	810	33.382308374807	0
2	817	33.869859341885	0
2	822	34.105651458603	0
2	827	34.66555864148	0
2	832	34.716076029134	0
2	839	34.779768801527	0
2	844	36.502870215306	0
2	851	36.654284531319	0
2	858	36.970452829517	0
2	865	37.326744626184	0
2	870	37.555530865702	0
2	875	37.584194328914	0
2	880	38.048433577365	0
2	885	38.348407020686	0
2	890	39.020529656762	0
2	895	39.030624720835	0
2	900	39.050612870364	0
2	907	39.207708268436	0
2	912	39.342052064797	0
2	919	39.373913388918	0
2	926	39.437941771574	0
2	933	39.660651502534	0
2	940	39.836239547225	0
2	947	40.164062689407	0
2	954	40.22725700762	0
2	961	40.810693770894	0
2	968	41.002044245325	0
2	973	41.28783712622	0
2	978	41.555279314098	0
2	985	42.064162843826	0
2	992	42.097311544567	0
2	999	42.219509268608	0
2	1004	42.807235205641	0
2	1011	42.809104032141	0
2	1016	43.223656963674	0
2	1023	43.227152798126	0
2	1030	43.381360218175	0
2	1037	43.736984186784	0
2	1044	44.107363662008	0
2	1049	44.225277224928	0
2	1054	44.274602379137	0
2	1061	45.350154840496	0
2	1066	45.544754633116	0
2	1071	45.588139874286	0
2	1078	45.779102661033	0
2	1085	45.941772868798	0
2	1092	46.133552975847	0
2	1099	46.138253351179	0
2	1106	46.688676306224	0
2	1111	46.912767838624	0
2	1116	46.983433195404	0
2	1121	47.504323522494	0
2	1128	47.612340131725	0
2	1133	48.134290427548	0
2	1138	48.305117511061	0
2	1143	48.458876372942	0
2	1150	48.532981367469	0
2	1155	48.560051592226	0
2	1162	48.786581429097	0
2	1167	49.001616113206	0
2	1172	49.011772342604	0
2	1177	49.101898468596	0
2	1184	49.188980128998	0
2	1191	49.41984557702	0
2	1198	49.422198847266	0
2	1205	49.501369600381	0
2	1210	49.984769004803	0
2	1217	50.067686671367	0
2	1224	50.225047501794	0
2	1229	50.406310520877	0
2	1236	50.833301828512	0
2	1243	51.00347519763	0
2	1248	51.070689457752	0
2	1253	51.354641534492	0
2	1258	51.497652020746	0
2	1263	52.203164225393	0
2	1268	52.632360709307	0
2	1275	52.641046786487	0
2	1280	52.884532612601	0
2	1287	53.08934222188	0
2	1294	53.513952627662	0
2	1299	54.016399400531	0
2	1306	54.023281992671	0
2	1311	54.142609396977	0
2	1318	55.134035441908	0
2	1323	55.668750225419	0
2	1330	55.703839423674	0
2	1335	55.965062239145	0
2	1342	56.002029120839	0
2	1347	56.901792179074	0
2	1352	57.502911462697	0
2	1357	57.564674786378	0
2	1362	57.741184853015	0
2	1369	57.923532412461	0
2	1374	58.469594132297	0
2	1379	58.734955380605	0
2	1386	58.763993514734	0
2	1391	58.987464754482	0
2	1398	59.326634523156	0
2	1405	59.470339761191	0
2	1412	59.905607674354	0
2	1417	60.052214452516	0
2	1424	60.093477095557	0
2	1429	61.119629677508	0
2	1434	61.70932114433	0
2	1441	61.775662322083	0
2	1446	62.153251849548	0
2	1453	62.421616956483	0
2	1458	62.692169291616	0
2	1465	62.769516686933	0
2	1470	63.073103177264	0
2	1475	63.204131798102	0
2	1480	63.720530303425	0
2	1485	63.971685702555	0
2	1490	64.247383697622	0
2	1497	64.332250865762	0
2	1502	64.729610480369	0
2	1509	64.798452305965	0
2	1516	64.808142196639	0
2	1521	65.05166283453	0
2	1528	65.125706054454	0
2	1533	65.231126442465	0
2	1540	65.755227813086	0
2	1545	65.770786541793	0
2	1552	65.925060179377	0
2	1557	65.942086354142	0
2	1564	66.166878022672	0
2	1569	66.423273882028	0
2	1574	66.703254417065	0
2	1581	66.85836762594	0
2	1588	66.931154615164	0
2	1595	66.985428164411	0
2	1602	67.162540230534	0
2	1609	67.211001607822	0
2	1616	67.632945844117	0
2	1621	67.75697821954	0
2	1628	67.851459851004	0
2	1633	68.203842758693	0
2	1640	68.252735843883	0
2	1647	68.269837553062	0
2	1652	68.630882626515	0
2	1659	68.799342245753	0
2	1666	69.327267050083	0
2	1673	69.520832096158	0
2	1680	69.803137346718	0
2	1687	69.928178094207	0
2	1692	70.367150366156	0
2	1697	70.443297178783	0
2	1702	70.672383620762	0
2	1707	70.723543928188	0
2	1712	71.009774703902	0
2	1719	71.062495090553	0
2	1726	72.174952419166	0
2	1733	72.325735375778	0
2	1738	73.078679584157	0
2	1745	73.146184164741	0
2	1750	73.46371801393	0
2	1757	73.75469391241	0
2	1762	73.760754763092	0
2	1769	73.807500234224	0
2	1774	73.813195680892	0
2	1779	74.030368508864	0
2	1784	74.65667227132	0
2	1789	74.973403580181	0
2	1796	75.067141299266	0
2	1803	75.987007691805	0
2	1810	76.067942735161	0
2	1817	77.243031380036	0
2	1824	78.255985788588	0
2	1831	78.27512724503	0
2	1836	78.35609884015	0
2	1843	78.363790032603	0
2	1848	78.711057803762	0
2	1853	78.802327104703	0
2	1860	78.841773244564	0
2	1865	78.86841895951	0
2	1872	79.596684972369	0
2	1877	79.810383402803	0
2	1884	80.597678220132	0
2	1889	80.633742953466	0
2	1896	80.8626796592	0
2	1903	80.938075164297	0
2	1908	81.054683434332	0
2	1913	81.071576827108	0
2	1918	81.107414519264	0
2	1925	81.199510179341	0
2	1932	81.797229462482	0
2	1939	82.030865745687	0
2	1946	82.333015281611	0
2	1953	82.605443845683	0
2	1958	83.132337938666	0
2	1963	83.158294214757	0
2	1970	83.245610947589	0
2	1977	83.473066869985	0
2	1982	84.16468058286	0
2	1987	84.173064465856	0
2	1992	85.141353084602	0
2	1997	85.272517739185	0
2	2002	85.278409355144	0
2	2009	85.328047165937	0
2	2016	85.551173576197	0
2	2021	86.002306396138	0
2	2026	86.656955578149	0
2	2033	86.993479452248	0
2	2040	87.087626939858	0
2	2047	87.294933211188	0
2	2052	87.35010125416	0
2	2059	87.662998761181	0
2	2064	87.686331512577	0
2	2071	87.690933787625	0
2	2078	87.802503391675	0
2	2083	87.893320973913	0
2	2090	87.901418145405	0
2	2095	87.902668709123	0
2	2102	87.995177621006	0
2	2109	88.306476292995	0
2	2116	88.433229145567	0
2	2121	88.691875070176	0
2	2126	88.903703620854	0
2	2133	89.471244675788	0
2	2138	90.345975765057	0
2	2145	90.787354107062	0
2	2150	90.814545123919	0
2	2155	91.268527137581	0
2	2160	91.284705539904	0
2	2167	91.396752508734	0
2	2174	91.48673117951	0
2	2181	91.833331064279	0
2	2186	92.050121153038	0
2	2191	92.075962605936	0
2	2198	92.319072143326	0
2	2203	92.506424424276	0
2	2208	92.642258459447	0
2	2215	92.919557596597	0
2	2222	94.280231724553	0
2	2229	94.435715627038	0
2	2236	94.911630480809	0
2	2241	95.081824903444	0
2	2246	95.46536473073	0
2	2253	95.479928728438	0
2	2260	95.925618016893	0
2	2265	96.463950714475	0
2	2272	96.620456548781	0
2	2277	97.118843400156	0
2	2282	97.305786648108	0
2	2287	97.709776674808	0
2	2292	97.963709236151	0
2	2297	98.083085672575	0
2	2302	98.200847959284	0
2	2309	98.289423715708	0
2	2314	98.32664726584	0
2	2321	98.39243973995	0
2	2326	98.450076900239	0
2	2331	98.871566287946	0
2	2336	99.544240004563	0
2	2343	99.836977535899	0
2	2348	99.845079497825	0
2	2355	100.174099820717	0
2	2362	100.303106202687	0
2	2369	100.873675154117	0
2	2376	101.020428980079	0
2	2383	101.065006125077	0
2	2390	101.094896606535	0
2	2397	101.123932787593	0
2	2404	101.408881570246	0
2	2409	101.602318838093	0
2	2416	101.743438432091	0
2	2421	101.78915373529	0
2	2426	102.385082787117	0
2	2433	102.807773479357	0
2	2440	103.044981624523	0
2	2447	103.525701410309	0
2	2454	103.624685277976	0
2	2461	104.015673138414	0
2	2468	104.02816731507	0
2	2473	104.25843009403	0
2	2478	104.293238929567	0
2	2483	104.97420479172	0
2	2490	104.99234738351	0
2	2497	105.317962749469	0
2	2502	105.54297404449	0
2	2509	105.620253358637	0
2	2516	106.004813259185	0
2	2521	106.108151817445	0
2	2528	106.471843425488	0
2	2535	107.098945060533	0
2	2540	107.243071825337	0
2	2545	107.560036835034	0
2	2550	107.682282346055	0
2	2555	107.986698802924	0
2	2560	108.530651019731	0
2	2567	109.41877132372	0
2	2574	109.571573774627	0
2	2581	109.645371791073	0
2	2588	109.655805400378	0
2	2593	109.715110105149	0
2	2600	109.785981106152	0
2	2605	110.425301832942	0
2	2610	110.618145679965	0
2	2617	110.852762749889	0
2	2624	111.094581943634	0
2	2631	111.613506981379	0
2	2636	111.79206756068	0
2	2641	111.988354074774	0
2	2648	112.057257945621	0
2	2655	112.423941782205	0
2	2660	112.877425743191	0
2	2665	112.877453419139	0
2	2672	112.919693928654	0
2	2679	113.106575575562	0
2	2686	113.266362902998	0
2	2693	113.543448317522	0
2	2698	113.907864039579	0
2	2705	114.343308038442	0
2	2712	114.44598192281	0
2	2717	114.990745880016	0
2	2724	115.015510748146	0
2	2731	115.3200330545	0
2	2738	115.901589696213	0
2	2745	116.231841236088	0
2	2752	116.353200482924	0
2	2757	116.517338214813	0
2	2764	117.130531951828	0
2	2771	117.260852016516	0
2	2778	117.917106012999	0
2	2783	117.989578353525	0
2	2788	118.136054082768	0
2	2793	118.324268758529	0
2	2798	118.444230518247	0
2	2805	118.97847933997	0
2	2812	119.34359317259	0
2	2819	119.662687475386	0
2	2826	119.675686347983	0
2	2831	120.022778288955	0
2	2836	120.139040798147	0
2	2841	120.222478118763	0
2	2848	120.297361736957	0
2	2853	120.498897304089	0
2	2858	120.733235542077	0
2	2865	120.952847921037	0
2	2870	121.252838360368	0
2	2877	121.264262575919	0
2	2882	121.373798182754	0
2	2889	121.426870584907	0
2	2894	121.476977179556	0
2	2901	121.868763412923	0
2	2906	122.301015266136	0
2	2913	122.865783013561	0
2	2920	122.928299308523	0
2	2925	122.988355243037	0
2	2930	123.352617164404	0
2	2937	123.490029558297	0
2	2942	123.514716721147	0
2	2949	123.560850575695	0
2	2954	123.610847441568	0
2	2961	124.191756912439	0
2	2966	124.220347114159	0
2	2973	124.443896879065	0
2	2978	124.5313655737	0
2	2985	124.860585999388	0
2	2992	124.961815381237	0
2	2999	125.07643754384	0
2	3006	125.154675429032	0
2	3013	125.244812578821	0
2	3018	125.44899727517	0
2	3023	125.515667586806	0
2	3030	125.579582874252	0
2	3035	125.735395282052	0
2	3042	126.219795051241	0
2	3049	126.235258197021	0
2	3056	126.960035585235	0
2	3061	127.14571325626	0
2	3068	127.647207092445	0
2	3075	127.695790931629	0
2	3080	127.836194804093	0
2	3085	127.958793850414	0
2	3090	128.002348142043	0
2	3095	128.694006375119	0
2	3102	128.866036911958	0
2	3107	129.095702256453	0
2	3114	129.523850041106	0
2	3119	129.534809795812	0
2	3126	129.547193912928	0
2	3133	129.664521837556	0
2	3140	129.83728162941	0
2	3147	130.006358986832	0
2	3154	130.144122955351	0
2	3161	130.709582194945	0
2	3168	130.762425781997	0
2	3175	130.79498221439	0
2	3182	130.803265261601	0
2	3187	131.169057996223	0
2	3194	131.208835772715	0
2	3201	131.213477284904	0
2	3208	131.767682162011	0
2	3213	132.495337253983	0
2	3220	132.662676964252	0
2	3225	133.264251611221	0
2	3230	133.429706551809	0
2	3235	134.037551788488	0
2	3240	134.478992060967	0
2	3245	134.57921315851	0
2	3250	134.612259163857	0
2	3257	134.740662512034	0
2	3262	134.971382403911	0
2	3269	135.07306638681	0
2	3274	135.405665269644	0
2	3279	136.180171109222	0
2	3286	136.970078278354	0
2	3291	137.225949395534	0
2	3296	137.432314328897	0
2	3303	137.436384205988	0
2	3308	137.555522240003	0
2	3313	137.859161884313	0
2	3318	137.990950440731	0
2	3323	139.046394827922	0
2	3330	139.06584469458	0
2	3337	139.404745695608	0
2	3342	140.537495165658	0
2	3349	140.823065792296	0
2	3354	141.166113663443	0
2	3359	141.499034906761	0
2	3366	141.62579517383	0
2	3371	141.996766728444	0
2	3378	142.242235405345	0
2	3385	142.586952674269	0
2	3392	142.760329326163	0
2	3397	143.033647459994	0
2	3404	143.691045147654	0
2	3411	143.799093255951	0
2	3416	143.978698309042	0
2	3423	144.280099219246	0
2	3430	144.28676184166	0
2	3435	144.720819550367	0
2	3440	144.934087456385	0
2	3445	145.925461908687	0
2	3450	146.00562895593	0
2	3457	146.116590507042	0
2	3462	146.763663420843	0
2	3469	148.120565334479	0
2	3476	148.445964005659	0
2	3481	148.864593133967	0
2	3488	149.146301854139	0
2	3495	149.1483300148	0
2	3500	149.208564873198	0
2	3505	149.36556382223	0
2	3510	149.595459481118	0
2	3517	149.658423558777	0
2	3524	149.732036077434	0
2	3529	149.859693095269	0
2	3536	150.011539912429	0
2	3543	150.18833820006	0
2	3550	150.293604844162	0
2	3557	150.549962165477	0
2	3562	150.72300978514	0
2	3567	150.787299903778	0
2	3574	150.907984824474	0
2	3579	150.914305592953	0
2	3584	150.965789774813	0
2	3589	151.226329185355	0
2	3594	152.217274355909	0
2	3599	152.638342507328	0
2	3606	152.881801458254	0
2	3613	153.092298107278	0
2	3618	154.44281300982	0
2	3625	154.712279590728	0
2	3630	155.220460189997	0
2	3635	155.485440979633	0
2	3642	155.897473381035	0
2	3649	156.120048050738	0
2	3654	156.229155856803	0
2	3661	156.322639491909	0
2	3668	156.36492923779	0
2	3673	156.484151273728	0
2	3680	156.544576190353	0
2	3685	156.745635100556	0
2	3690	156.877770332624	0
2	3697	157.290892272449	0
2	3704	157.361955028145	0
2	3711	157.558706233706	0
2	3718	157.586159919982	0
2	3723	158.181056233784	0
2	3728	158.827630163182	0
2	3733	158.834653458803	0
2	3738	158.840400083907	0
2	3745	159.113589809486	0
2	3750	159.221611926014	0
2	3755	159.403233035465	0
2	3760	159.482699625293	0
2	3767	159.849691888483	0
2	3774	159.891123024942	0
2	3781	160.035379380116	0
2	3788	160.082316653757	0
2	3793	160.55489235755	0
2	3800	160.648006037559	0
2	3805	161.112336068504	0
2	3810	161.253098079739	0
2	3817	161.479488927896	0
2	3822	161.536045350556	0
2	3829	161.75231778528	0
2	3836	162.159826950728	0
2	3841	162.233479896188	0
2	3848	163.044636862333	0
2	3853	163.218508678984	0
2	3860	163.282876153632	0
2	3867	163.333643195603	0
2	3874	163.491223209961	0
2	3881	163.639174146585	0
2	3888	163.709658088793	0
2	3893	163.867731496786	0
2	3898	163.896214763019	0
2	3905	164.157822691303	0
2	3910	164.219802115041	0
2	3917	164.337303350491	0
2	3924	164.489289130105	0
2	3929	164.554453551034	0
2	3936	164.796008674901	0
2	3941	164.858985778696	0
2	3948	165.167800270789	0
2	3953	165.433856472571	0
2	3960	165.459512156307	0
2	3965	166.028604598238	0
2	3970	166.195306267426	0
2	3977	166.416933285128	0
2	3982	166.479391509297	0
2	3989	166.655892278884	0
2	3996	166.755820047844	0
2	4003	167.111824080656	0
2	4008	167.356248831809	0
2	4013	167.40141745385	0
2	4018	167.430681403323	0
2	4025	167.888696831672	0
2	4030	167.970144857573	0
2	4035	168.085855343551	0
2	4042	168.48570351697	0
2	4047	168.839962959365	0
2	4054	169.425262734075	0
2	4059	169.59116935622	0
2	4064	169.741331896363	0
2	4069	169.839562839311	0
2	4076	169.997108044368	0
2	4083	170.033317599425	0
2	4088	170.073616065928	0
2	4093	170.078483770598	0
2	4098	170.237775694538	0
2	4105	170.47619792244	0
2	4112	170.70789293621	0
2	4119	170.779519446901	0
2	4126	170.889253527348	0
2	4131	171.350817689259	0
2	4138	171.64448432796	0
2	4143	171.658777331151	0
2	4148	171.681596355899	0
2	4153	172.309543098069	0
2	4160	172.940708632352	0
2	4165	173.113752022612	0
2	4170	173.153791450584	0
2	4177	173.278184119179	0
2	4182	173.47075751383	0
2	4189	173.643956788745	0
2	4196	173.827182434661	0
2	4203	174.162298372949	0
2	4208	174.542307364045	0
2	4215	174.593132118847	0
2	4220	174.810009539592	0
2	4225	174.905657562541	0
2	4230	175.424280109592	0
2	4235	175.746734355175	0
2	4240	175.76473577005	0
2	4247	176.195536533653	0
2	4254	176.476949134562	0
2	4259	176.530159979522	0
2	4266	176.883398315155	0
2	4271	176.886852120922	0
2	4278	176.970495895342	0
2	4285	177.048138688094	0
2	4290	177.270978791856	0
2	4297	177.620036377653	0
2	4304	177.782621812897	0
2	4309	177.795123344334	0
2	4314	177.864099960299	0
2	4319	178.061128746272	0
2	4326	178.170043002649	0
2	4333	178.249549011049	0
2	4338	178.310474912707	0
2	4343	178.397574270999	0
2	4348	178.501166862125	0
2	4353	178.570460272837	0
2	4358	179.742080237883	0
2	4365	179.815963755822	0
2	4370	180.174549292598	0
2	4377	180.208382265618	0
2	4382	180.222948028752	0
2	4389	180.513623688117	0
2	4394	181.429956244006	0
2	4399	181.473264741229	0
2	4406	181.582334533326	0
2	4411	181.7800668461	0
2	4418	182.388000532886	0
2	4423	182.424047833638	0
2	4428	182.678649077071	0
2	4433	182.727708838385	0
2	4440	183.436318669647	0
2	4447	183.714148126226	0
2	4452	183.899643658784	0
2	4457	184.220130431416	0
2	4464	184.2997799737	0
2	4471	184.733764964709	0
2	4476	184.821487323331	0
2	4483	184.932305439719	0
2	4488	185.451307908643	0
2	4493	185.465028958858	0
2	4500	185.639197104489	0
2	4505	185.970413540408	0
2	4510	186.10764530141	0
2	4517	186.296458153531	0
2	4524	186.38395567764	0
2	4531	186.388862895839	0
2	4536	186.835925407198	0
2	4541	187.020216877003	0
2	4548	187.184640957236	0
2	4555	187.317187507939	0
2	4562	187.623560230371	0
2	4569	187.973573048429	0
2	4576	188.420573749769	0
2	4581	188.619344365388	0
2	4586	189.594332821311	0
2	4593	189.957111361162	0
2	4598	190.002342103293	0
2	4603	190.053618049795	0
2	4610	190.262640141805	0
2	4617	190.748645587336	0
2	4624	191.177363138643	0
2	4629	191.570589335994	0
2	4636	192.171332866065	0
2	4643	192.257102179751	0
2	4648	192.430123991888	0
2	4655	193.454692074446	0
2	4662	194.299809551825	0
2	4669	194.344225743152	0
2	4676	194.431054024756	0
2	4683	194.480664787998	0
2	4688	194.871873487061	0
2	4695	194.976304540878	0
2	4702	195.230414267904	0
2	4707	195.373899074	0
2	4712	195.406281920395	0
2	4719	196.721304096567	0
2	4724	196.786584148237	0
2	4731	196.997155902862	0
2	4736	197.0831249469	0
2	4743	197.146820094071	0
2	4748	197.73354366063	0
2	4755	198.092184671287	0
2	4762	198.109120598908	0
2	4769	198.292473175805	0
2	4774	198.411402917555	0
2	4779	198.475189704454	0
2	4784	198.694728197248	0
2	4789	198.988112600588	0
2	4794	199.208690005953	0
2	4799	199.457294649124	0
2	4804	199.465526291116	0
2	4809	199.84500867824	0
2	4816	199.889354112146	0
2	4821	199.947434811813	0
2	4826	200.203898307727	0
2	4831	200.588129596423	0
2	4838	200.822674347236	0
2	4845	201.392813785696	0
2	4852	201.44528015936	0
2	4857	201.912723727538	0
2	4864	201.915031152292	0
2	4871	201.966866570613	0
2	4878	202.985013664249	0
2	4885	203.033284303763	0
2	4892	203.336001194583	0
2	4899	203.364797652992	0
2	4904	203.365683529366	0
2	4909	203.41093726444	0
2	4914	203.543404733259	0
2	4921	203.56258045319	0
2	4926	203.678766928628	0
2	4933	204.039141722323	0
2	4940	204.055958682783	0
2	4947	204.425418692753	0
2	4954	204.43328325464	0
2	4959	204.593538006557	0
2	4966	204.793105703484	0
2	4971	204.873542193222	0
2	4976	204.908793167402	0
2	4981	205.302072713348	0
2	4988	205.317776786447	0
2	4995	205.334278778975	0
2	5000	205.44720942091	0
2	5007	205.4592541873	0
2	5014	205.605227223164	0
2	5019	205.881140355854	0
2	5024	205.951378214332	0
2	5029	206.187362258218	0
2	5034	206.193416880749	0
2	5041	206.342438335556	0
2	5048	206.403795839214	0
2	5053	206.531094815835	0
2	5058	207.01289116398	0
2	5063	207.153179127069	0
2	5070	208.402577577574	0
2	5077	208.63703824121	0
2	5082	208.9829601863	0
2	5087	209.006327637168	0
2	5092	209.269343035048	0
2	5097	209.454923895449	0
2	5102	209.543862274377	0
2	5107	210.434329611823	0
2	5112	210.943438401227	0
2	5119	210.957178239185	0
2	5126	211.294149961294	0
2	5131	211.766030114764	0
2	5138	211.805009134999	0
2	5145	212.034523098743	0
2	5152	212.068290177182	0
2	5159	212.255821148741	0
2	5166	213.020290584097	0
2	5173	213.829621117307	0
2	5180	213.999739727114	0
2	5187	214.036265555691	0
2	5192	214.039942040694	0
2	5199	214.174418152155	0
2	5204	214.615273337159	0
2	5211	214.717519807734	0
2	5216	214.854879684401	0
2	5223	214.858743163713	0
2	5228	215.357346338931	0
2	5235	215.406839444218	0
2	5242	215.771028230734	0
2	5247	216.665166805142	0
2	5254	216.732897516068	0
2	5259	216.941067865961	0
2	5266	217.07715446009	0
2	5271	217.345557713527	0
2	5278	217.356317854722	0
2	5283	217.514730772876	0
2	5288	218.127796878993	0
2	5295	218.220877673563	0
2	5302	218.488827071233	0
2	5309	218.785155780201	0
2	5314	218.797934859983	0
2	5321	219.0087257315	0
2	5328	219.890769427594	0
2	5335	220.116388826839	0
2	5340	220.533257400251	0
2	5345	220.786619007201	0
2	5350	220.810168642729	0
2	5357	221.411301899588	0
2	5362	221.48117851332	0
2	5369	221.543693036257	0
2	5376	221.757946838347	0
2	5381	221.779264459018	0
2	5386	222.622873603397	0
2	5391	222.771560367351	0
2	5398	223.142519079766	0
2	5405	223.382958191918	0
2	5410	224.888068265517	0
2	5417	225.119386044869	0
2	5422	225.485313237271	0
2	5429	226.296053428906	0
2	5436	226.471937121621	0
2	5443	226.536456373213	0
2	5448	226.622166820615	0
2	5453	226.760403178887	0
2	5458	226.903857726579	0
2	5463	227.03341385452	0
2	5468	227.089386125092	0
2	5473	227.425577576111	0
2	5478	228.933061712204	0
2	5485	228.951316497198	0
2	5492	229.084224771709	0
2	5499	229.30589196971	0
2	5506	229.891109834717	0
2	5511	230.043668803804	0
2	5516	230.073732988369	0
2	5523	230.134369404596	0
2	5530	230.790350945138	0
2	5537	230.850766643269	0
2	5542	231.316548530542	0
2	5547	231.815197992625	0
2	5554	231.918117840539	0
2	5559	231.97422526522	0
2	5566	231.989369313364	0
2	5571	232.212483175706	0
2	5578	232.223767159184	0
2	5585	232.419847803995	0
2	5590	232.44692225352	0
2	5595	233.016819956852	0
2	5602	233.110577343919	0
2	5607	233.152597852693	0
2	5612	233.246880214819	0
2	5617	233.597402969482	0
2	5622	233.89567792792	0
2	5629	233.904255958765	0
2	5634	234.071338568691	0
2	5641	234.085795378857	0
2	5648	234.999558512765	0
2	5653	235.156951509368	0
2	5660	235.216390940452	0
2	5665	235.292686492583	0
2	5670	235.641655266999	0
2	5677	235.886841802748	0
2	5682	236.04690184059	0
2	5687	236.159423087521	0
2	5692	236.661980911807	0
2	5697	237.059592012461	0
2	5704	237.315554476656	0
2	5711	237.682167145995	0
2	5716	238.069384264071	0
2	5721	238.283840181957	0
2	5726	238.978519435431	0
2	5731	238.990983483295	0
2	5738	239.090623010977	0
2	5745	239.17119430039	0
2	5750	239.59226215565	0
2	5755	239.662958712016	0
2	5762	240.891666324183	0
2	5769	241.507025749698	0
2	5776	241.80760307289	0
2	5781	242.255523423532	0
2	5786	242.292276612241	0
2	5793	242.424943010917	0
2	5800	242.598159674664	0
2	5805	242.765327482868	0
2	5810	242.847973989028	0
2	5815	243.144639273158	0
2	5822	243.155388790522	0
2	5827	243.414840621959	0
2	5832	243.485213199673	0
2	5837	243.722883034494	0
2	5844	243.75087951722	0
2	5851	243.803577582176	0
2	5858	244.044865189756	0
2	5863	244.186202334642	0
2	5868	245.31494073002	0
2	5873	245.352536634602	0
2	5880	245.657523231614	0
2	5887	245.66726787809	0
2	5894	246.063072425392	0
2	5899	247.070348330841	0
2	5904	247.231018482276	0
2	5909	247.31138350256	0
2	5914	247.759910009613	0
2	5919	247.909586511084	0
2	5926	248.008527470596	0
2	5933	248.129900189276	0
2	5940	248.390955841481	0
2	5947	248.824601850896	0
2	5952	249.044941564782	0
2	5959	249.226170236857	0
2	5966	249.3846589268	0
2	5973	249.544079451006	0
2	5980	249.847971833064	0
2	5985	250.904645720232	0
2	5990	251.161488526864	0
2	5995	251.174402549077	0
2	6000	251.317187009329	0
2	6007	251.602503608566	0
2	6014	251.954978269254	0
2	6019	252.412010366608	0
2	6026	252.571522632863	0
2	6031	252.597818244022	0
2	6038	252.734230991444	0
2	6043	252.831250415804	0
2	6048	253.203439546503	0
2	6053	253.216879856258	0
2	6060	253.86047742648	0
2	6065	253.911218493192	0
2	6070	254.114081665125	0
2	6075	254.313979301364	0
2	6082	254.351741597841	0
2	6087	255.603535866757	0
2	6094	256.059204049057	0
2	6101	256.15151198551	0
2	6108	256.176469786723	0
2	6113	256.594942156894	0
2	6118	256.74121745749	0
2	6123	256.94140822322	0
2	6128	257.236825833422	0
2	6135	257.335232818006	0
2	6142	257.390490756307	0
2	6149	257.749673673913	0
2	6156	257.963894188308	0
2	6163	258.321211281997	0
2	6168	258.336990493644	0
2	6173	258.581544698954	0
2	6180	258.994935693842	0
2	6185	259.152066366081	0
2	6192	259.372541602722	0
2	6197	259.639005661821	0
2	6202	260.258854702129	0
2	6209	260.820100411233	0
2	6216	260.934758997051	0
2	6221	261.375674627678	0
2	6228	261.499987596208	0
2	6233	261.58472045715	0
2	6240	262.009464186746	0
2	6245	262.148600673937	0
2	6252	262.406900604779	0
2	6259	262.566097112807	0
2	6266	262.958375461266	0
2	6273	263.038617514945	0
2	6280	263.204747826734	0
2	6285	263.20555408126	0
2	6290	263.220904967766	0
2	6295	263.724911738008	0
2	6302	264.174771931673	0
2	6307	264.344429991697	0
2	6312	264.34838766495	0
2	6319	264.352854822455	0
2	6326	264.586003335674	0
2	6333	264.598419939547	0
2	6338	264.656684209212	0
2	6345	264.976503063442	0
2	6350	265.064980553636	0
2	6355	265.289024537824	0
2	6360	265.335902231629	0
2	6365	265.685192734669	0
2	6370	265.945582167104	0
2	6375	266.028980046165	0
2	6380	266.041286868201	0
2	6387	266.252741310216	0
2	6392	266.318421104908	0
2	6399	266.462480971951	0
2	6406	266.949217243774	0
2	6413	266.953491253097	0
2	6420	267.11709644376	0
2	6425	267.501566236832	0
2	6430	267.619269170084	0
2	6435	268.206304238481	0
2	6440	268.267785521925	0
2	6445	268.32014165864	0
2	6450	268.750499012397	0
2	6457	268.851793363148	0
2	6462	268.921586358205	0
2	6467	269.308844752172	0
2	6474	269.445957943292	0
2	6479	269.866150253672	0
2	6486	270.089903062847	0
2	6493	270.336123751036	0
2	6500	270.337477188325	0
2	6507	270.466269621496	0
2	6514	270.987191853906	0
2	6521	271.290548058528	0
2	6526	271.352754423413	0
2	6533	271.749183956984	0
2	6540	272.193448313147	0
2	6547	273.090784870146	0
2	6552	273.142005286332	0
2	6557	274.373327421035	0
2	6562	274.3818352329	0
2	6569	274.736109285276	0
2	6574	274.932069498139	0
2	6579	275.222573825869	0
2	6586	275.332267172386	0
2	6593	275.910004536759	0
2	6598	276.06271502591	0
2	6605	276.266482776323	0
2	6612	276.469689209697	0
2	6619	276.484455115279	0
2	6624	276.585627672303	0
2	6631	277.266783390628	0
2	6638	277.317934281133	0
2	6645	277.708876492685	0
2	6650	277.845572019226	0
2	6657	278.000606578838	0
2	6664	278.367541562349	0
2	6671	278.609068074481	0
2	6678	279.201081942655	0
2	6685	280.022758560258	0
2	6692	280.070400801694	0
2	6697	280.208769617657	0
2	6702	280.337999242016	0
2	6709	280.379426990264	0
2	6716	280.643498985625	0
2	6723	281.030805853803	0
2	6728	281.214723301154	0
2	6735	281.518951865287	0
2	6740	282.306080245797	0
2	6747	282.608962088865	0
2	6754	283.091211969745	0
2	6761	283.290186167069	0
2	6768	283.361810518962	0
2	6773	283.36665747422	0
2	6780	283.620924443014	0
2	6787	284.014266000744	0
2	6794	285.041292242676	0
2	6799	285.337386816533	0
2	6806	285.527316726916	0
2	6811	285.686688600006	0